# vtk DataFile Version 2.0
Sample rectilinear grid
ASCII
DATASET RECTILINEAR_GRID
DIMENSIONS 2 2 2
X_COORDINATES 2 float
0 1
Y_COORDINATES 2 float
0 1
Z_COORDINATES 2 float
0 1
POINT_DATA 8
SCALARS scalars float
LOOKUP_TABLE default
5.9 .2 .9 .8 .9 .1 .9 .2
VECTORS vectors float
1.338182 -50.0105356 1.619273 0.325472 0.0101632 0.306248
0.0730082 0.0330933 0.0144899 0.0779212 0.0353807 0.018293
0.163913 0.0185081 -0.0010734 0.162884 0.0180696 -0.0009607
0.0768074 -0.0122758 0.0487514 0.0741287 -0.0153087 0.0650711